# KCl Fm-3m rock-salt structure

8 atoms
4 atom types
1 bond types
1 angle types

0.0 6.27700 xlo xhi
0.0 6.27700 ylo yhi
0.0 6.27700 zlo zhi
0.0 0.0 0.0 xy xz yz

Masses

1 16.0000 # Ow
2  1.0100 # Hw
3 39.0983 # K
4 35.4530 # Cl

Atoms  # full

1   0   3   1.0000    0.0000    0.0000    0.0000
2   1   3   1.0000    0.0000    3.1385    3.1385
3   2   3   1.0000    3.1385    3.1385    0.0000
4   3   3   1.0000    3.1385    0.0000    3.1385
5   4   4  -1.0000    0.0000    3.1385    0.0000
6   5   4  -1.0000    0.0000    0.0000    3.1385
7   6   4  -1.0000    3.1385    0.0000    0.0000
8   7   4  -1.0000    3.1385    3.1385    3.1385
