# alpha-KNO3

12 atoms
4 atom types
1 bond types
1 angle types

0.0  4.43851 xlo xhi
0.0  7.68772 ylo yhi
0.0 10.87210 zlo zhi
0.0 0.0 0.0 xy xz yz

Masses

1 16.0000 # Ow
2  1.0100 # Hw
3 39.0983 # K
4 35.4530 # Cl

Atoms  # full

1    0    3    1.0000    0.0000    0.0000    0.0000
2    1    3    1.0000    2.219255  3.84386   0.0000
3    2    3    1.0000    2.219255  1.28129   3.62403
4    3    3    1.0000    0.0000    5.12515   3.62403
5    4    3    1.0000    0.0000    2.56257   7.24807
6    5    3    1.0000    2.219255  6.40643   7.24807
7    6    4   -1.0000    0.0000    2.56257   1.81202
8    7    4   -1.0000    2.219255  6.40643   1.81202
9    8    4   -1.0000    0.0000    0.0000    5.43605
10   9    4   -1.0000    2.219255  3.84386   5.43605
11   10   4   -1.0000    2.219255  1.28129   9.06008
12   11   4   -1.0000    0.0000    5.12515   9.06008
