LAMMPS data file via atomsk, version 2.0.3, 2020-05-21

20 atoms
12 bonds
24 angles
4 impropers

5 atom types
2 bond types
3 angle types
1 improper types
0.0 5.402160723591 xlo xhi
0.0 9.35671099493 ylo yhi
0.0 6.59224629412 zlo zhi
0.0 0.0 0.0 xy xz yz

Masses

5 39.0983 # K
2 14.0 # N
3 16.0 # On
4 1.01 # H
1 16.0 # Ow

Atoms # full

1 1 5 1.0 1.3535499573 3.8185139352 4.8669051676
2 2 5 1.0 4.0606498718 5.3473862952 1.5639949293
3 3 5 1.0 4.0606498718 8.4014640504 4.7794449777
4 4 5 1.0 1.3535499573 0.76443618 1.6514551192
5 5 2 0.7802 1.3535499573 6.9184216956 5.8855597365
6 6 2 0.7802 4.0606498718 2.2474785348 0.5453403154
7 7 2 0.7802 4.0606498718 2.3354715804 3.7607904088
8 8 2 0.7802 1.3535499573 6.83042865 2.6701096881
9 5 3 -0.5934 1.3535499573 8.1594845593 5.8566208662
10 6 3 -0.5934 4.0606498718 1.0064156711 0.5742793722
11 7 3 -0.5934 4.0606498718 3.5765344441 3.7897292792
12 8 3 -0.5934 1.3535499573 5.5893657863 2.6411706248
13 5 3 -0.5934 2.4320585849 6.293307364 5.8849165372
14 6 3 -0.5934 2.9821410818 2.8725928664 0.5459834118
15 7 3 -0.5934 2.9821410818 1.7103572488 3.7614336082
16 8 3 -0.5934 2.4320585849 7.4555429816 2.6694666817
17 6 3 -0.5934 5.1391586619 2.8725928664 0.5459834118
18 5 3 -0.5934 0.2750413297 6.293307364 5.8849165372
19 8 3 -0.5934 0.2750413297 7.4555429816 2.6694666817
20 7 3 -0.5934 5.1391586619 1.7103572488 3.7614336082

Bonds

1 2 5 9
2 2 5 13
3 2 5 18
4 2 6 10
5 2 6 14
6 2 6 17
7 2 7 11
8 2 7 15
9 2 7 20
10 2 8 12
11 2 8 16
12 2 8 19

Angles

1 2 9 5 13
2 3 9 5 13
3 2 9 5 18
4 3 9 5 18
5 2 13 5 18
6 3 13 5 18
7 2 10 6 14
8 3 10 6 14
9 2 10 6 17
10 3 10 6 17
11 2 14 6 17
12 3 14 6 17
13 2 11 7 15
14 3 11 7 15
15 2 11 7 20
16 3 11 7 20
17 2 15 7 20
18 3 15 7 20
19 2 12 8 16
20 3 12 8 16
21 2 12 8 19
22 3 12 8 19
23 2 16 8 19
24 3 16 8 19

Impropers

1 1 5 9 13 18
2 1 6 10 14 17
3 1 7 11 15 20
4 1 8 12 16 19

