LAMMPS data file via atomsk, version 2.0.3, 2020-05-21

20 atoms
12 bonds
24 angles
4 impropers

5 atom types
2 bond types
3 angle types
1 improper types
0.0 6.59224629412 xlo xhi
0.0 5.402160723591 ylo yhi
0.0 9.35671099493 zlo zhi
0.0 0.0 0.0 xy xz yz

Masses

5 39.0983 # K
2 14.0 # N
3 16.0 # On
4 1.01 # H
1 16.0 # Ow

Atoms # full

1 4 3 -0.5934 5.8849165372 2.4320585849 6.293307364
2 5 3 -0.5934 0.5459834118 2.9821410818 2.8725928664
3 5 3 -0.5934 0.5742793722 4.0606498718 1.0064156711
4 1 3 -0.5934 3.7897292792 4.0606498718 3.5765344441
5 1 3 -0.5934 3.7614336082 2.9821410818 1.7103572488
6 2 3 -0.5934 2.6411706248 1.3535499573 5.5893657863
7 2 3 -0.5934 2.6694666817 2.4320585849 7.4555429816
8 1 2 0.7802 3.7607904088 4.0606498718 2.3354715804
9 2 2 0.7802 2.6701096881 1.3535499573 6.83042865
10 4 3 -0.5934 5.8566208662 1.3535499573 8.1594845593
11 5 3 -0.5934 0.5459834118 5.1391586619 2.8725928664
12 4 3 -0.5934 5.8849165372 0.2750413297 6.293307364
13 3 5 1.0 1.6514551192 1.3535499573 0.76443618
14 4 2 0.7802 5.8855597365 1.3535499573 6.9184216956
15 5 2 0.7802 0.5453403154 4.0606498718 2.2474785348
16 2 3 -0.5934 2.6694666817 0.2750413297 7.4555429816
17 1 3 -0.5934 3.7614336082 5.1391586619 1.7103572488
18 6 5 1.0 4.8669051676 1.3535499573 3.8185139352
19 7 5 1.0 1.5639949293 4.0606498718 5.3473862952
20 8 5 1.0 4.7794449777 4.0606498718 8.4014640504

Bonds

1 2 8 4
2 2 8 5
3 2 8 17
4 2 9 6
5 2 9 7
6 2 9 16
7 2 14 1
8 2 14 10
9 2 14 12
10 2 15 2
11 2 15 3
12 2 15 11

Angles

1 2 4 8 5
2 3 4 8 5
3 2 4 8 17
4 3 4 8 17
5 2 5 8 17
6 3 5 8 17
7 2 6 9 7
8 3 6 9 7
9 2 6 9 16
10 3 6 9 16
11 2 7 9 16
12 3 7 9 16
13 2 1 14 10
14 3 1 14 10
15 2 1 14 12
16 3 1 14 12
17 2 10 14 12
18 3 10 14 12
19 2 2 15 3
20 3 2 15 3
21 2 2 15 11
22 3 2 15 11
23 2 3 15 11
24 3 3 15 11

Impropers

1 1 8 4 5 17
2 1 9 6 7 16
3 1 14 1 10 12
4 1 15 2 3 11

