LAMMPS data file via atomsk, version 2.0.3, 2020-05-21

20 atoms
12 bonds
24 angles
4 impropers

5 atom types
2 bond types
3 angle types
1 improper types
0.0 6.59224629412 xlo xhi
0.0 9.35671099493 ylo yhi
0.0 5.402160723591 zlo zhi

Masses

5 39.0983 # K
2 14.0 # N
3 16.0 # On
4 1.01 # H
1 16.0 # Ow

Atoms # full

1 1 5 1.0 1.6514551192 0.76443618 1.3535499573
2 3 3 -0.5934 0.5742793722 1.0064156711 4.0606498718
3 2 2 0.7802 5.8855597365 6.9184216956 1.3535499573
4 4 3 -0.5934 3.7897292792 3.5765344441 4.0606498718
5 3 2 0.7802 0.5453403154 2.2474785348 4.0606498718
6 5 3 -0.5934 2.6411706248 5.5893657863 1.3535499573
7 2 3 -0.5934 5.8849165372 6.293307364 2.4320585849
8 4 3 -0.5934 3.7614336082 1.7103572488 2.9821410818
9 3 3 -0.5934 0.5459834118 2.8725928664 2.9821410818
10 5 3 -0.5934 2.6694666817 7.4555429816 2.4320585849
11 5 3 -0.5934 2.6694666817 7.4555429816 0.2750413297
12 4 3 -0.5934 3.7614336082 1.7103572488 5.1391586619
13 4 2 0.7802 3.7607904088 2.3354715804 4.0606498718
14 5 2 0.7802 2.6701096881 6.83042865 1.3535499573
15 2 3 -0.5934 5.8566208662 8.1594845593 1.3535499573
16 3 3 -0.5934 0.5459834118 2.8725928664 5.1391586619
17 2 3 -0.5934 5.8849165372 6.293307364 0.2750413297
18 6 5 1.0 4.8669051676 3.8185139352 1.3535499573
19 7 5 1.0 1.5639949293 5.3473862952 4.0606498718
20 8 5 1.0 4.7794449777 8.4014640504 4.0606498718

Bonds

1 2 3 7
2 2 3 15
3 2 3 17
4 2 5 2
5 2 5 9
6 2 5 16
7 2 13 4
8 2 13 8
9 2 13 12
10 2 14 6
11 2 14 10
12 2 14 11

Angles

1 2 7 3 15
2 3 7 3 15
3 2 7 3 17
4 3 7 3 17
5 2 15 3 17
6 3 15 3 17
7 2 2 5 9
8 3 2 5 9
9 2 2 5 16
10 3 2 5 16
11 2 9 5 16
12 3 9 5 16
13 2 4 13 8
14 3 4 13 8
15 2 4 13 12
16 3 4 13 12
17 2 8 13 12
18 3 8 13 12
19 2 6 14 10
20 3 6 14 10
21 2 6 14 11
22 3 6 14 11
23 2 10 14 11
24 3 10 14 11

Impropers

1 1 3 7 15 17
2 1 5 2 9 16
3 1 13 4 8 12
4 1 14 6 10 11

