# alpha-KNO3

5 atoms
5 atom types
3 bonds
2 bond types
6 angles
3 angle types
1 impropers
1 improper types

0.0000000000000000e+00 4.6145724058837757e+01 xlo xhi
0.0000000000000000e+00 4.8619446512322604e+01 ylo yhi
0.0000000000000000e+00 3.0000000000000000e+01 zlo zhi
0.0000000000000000e+00 0.0000000000000000e+00 0.0000000000000000e+00 xy xz yz

Masses

1 16		# Ow
2 14		# N
3 16		# On
4 1.01		# Hw
5 39.0983	# K

Atoms  # full

1	2	5	1.0000000000	11.3535499573	13.8185139352	14.8669051676
2	1	2	0.7802000000	1.3535499573	6.9184216956	5.8855597365
3	1	3	-0.5934000000	1.3535499573	8.1594845593	5.8566208662
4	1	3	-0.5934000000	2.4320585849	6.2933073640	5.8849165372
5	1	3	-0.5934000000	0.2750413297	6.2933073640	5.8849165372

Bonds

1	2	3	2
2	2	4	2
3	2	5	2

Angles

1	2	3	2	4
2	2	4	2	5
3	2	5	2	3
4	3	3	2	4
5	3	4	2	5
6	3	5	2	3

Impropers

1	1	2	3	4	5
