# KCl solution

5 atoms
4 atom types
2 bonds
1 bond types
1 angles
1 angle types

0.0000 46.0000 xlo xhi
0.0000 46.0000 ylo yhi
0.0000 30.0000 zlo zhi
0.0000  0.0000  0.0000 xy xz yz

Masses

1 16.0000 # Ow
2  1.0100 # Hw
3 39.0983 # K
4 35.4530 # Cl

Atoms # full

1	1	3	1	5.0	5.0	5.0
2	2	4	-1	10.0	10.0	10.0
3	3	1	-0.82	1.12456	0.09298	6.27452
4	3	2	0.41	1.53683	0.75606	6.89928
5	3	2	0.41	0.49482	0.56390	5.65678

Bonds

1	1	4	3
2	1	5	3

Angles

1	1	4	3	5
